 Entering Gaussian System, Link 0=g16
 Input=BOMD-Complex_gr.gjf
 Output=./OUT/BOMD-Complex_gr.gjf
 Initial command:
 /usr/local/share/g16/l1.exe "/scr/omabaza/Gau-253918.inp" -scrdir="/scr/omabaza/"
 Entering Link 1 = /usr/local/share/g16/l1.exe PID=    253919.
  
 Copyright (c) 1988,1990,1992,1993,1995,1998,2003,2009,2016,
            Gaussian, Inc.  All Rights Reserved.
  
 This is part of the Gaussian(R) 16 program.  It is based on
 the Gaussian(R) 09 system (copyright 2009, Gaussian, Inc.),
 the Gaussian(R) 03 system (copyright 2003, Gaussian, Inc.),
 the Gaussian(R) 98 system (copyright 1998, Gaussian, Inc.),
 the Gaussian(R) 94 system (copyright 1995, Gaussian, Inc.),
 the Gaussian 92(TM) system (copyright 1992, Gaussian, Inc.),
 the Gaussian 90(TM) system (copyright 1990, Gaussian, Inc.),
 the Gaussian 88(TM) system (copyright 1988, Gaussian, Inc.),
 the Gaussian 86(TM) system (copyright 1986, Carnegie Mellon
 University), and the Gaussian 82(TM) system (copyright 1983,
 Carnegie Mellon University). Gaussian is a federally registered
 trademark of Gaussian, Inc.
  
 This software contains proprietary and confidential information,
 including trade secrets, belonging to Gaussian, Inc.
  
 This software is provided under written license and may be
 used, copied, transmitted, or stored only in accord with that
 written license.
  
 The following legend is applicable only to US Government
 contracts under FAR:
  
                    RESTRICTED RIGHTS LEGEND
  
 Use, reproduction and disclosure by the US Government is
 subject to restrictions as set forth in subparagraphs (a)
 and (c) of the Commercial Computer Software - Restricted
 Rights clause in FAR 52.227-19.
  
 Gaussian, Inc.
 340 Quinnipiac St., Bldg. 40, Wallingford CT 06492
  
  
 ---------------------------------------------------------------
 Warning -- This program may not be used in any manner that
 competes with the business of Gaussian, Inc. or will provide
 assistance to any competitor of Gaussian, Inc.  The licensee
 of this program is prohibited from giving any competitor of
 Gaussian, Inc. access to this program.  By using this program,
 the user acknowledges that Gaussian, Inc. is engaged in the
 business of creating and licensing software in the field of
 computational chemistry and represents and warrants to the
 licensee that it is not a competitor of Gaussian, Inc. and that
 it will not use this program in any manner prohibited above.
 ---------------------------------------------------------------
  

 Cite this work as:
 Gaussian 16, Revision A.03,
 M. J. Frisch, G. W. Trucks, H. B. Schlegel, G. E. Scuseria, 
 M. A. Robb, J. R. Cheeseman, G. Scalmani, V. Barone, 
 G. A. Petersson, H. Nakatsuji, X. Li, M. Caricato, A. V. Marenich, 
 J. Bloino, B. G. Janesko, R. Gomperts, B. Mennucci, H. P. Hratchian, 
 J. V. Ortiz, A. F. Izmaylov, J. L. Sonnenberg, D. Williams-Young, 
 F. Ding, F. Lipparini, F. Egidi, J. Goings, B. Peng, A. Petrone, 
 T. Henderson, D. Ranasinghe, V. G. Zakrzewski, J. Gao, N. Rega, 
 G. Zheng, W. Liang, M. Hada, M. Ehara, K. Toyota, R. Fukuda, 
 J. Hasegawa, M. Ishida, T. Nakajima, Y. Honda, O. Kitao, H. Nakai, 
 T. Vreven, K. Throssell, J. A. Montgomery, Jr., J. E. Peralta, 
 F. Ogliaro, M. J. Bearpark, J. J. Heyd, E. N. Brothers, K. N. Kudin, 
 V. N. Staroverov, T. A. Keith, R. Kobayashi, J. Normand, 
 K. Raghavachari, A. P. Rendell, J. C. Burant, S. S. Iyengar, 
 J. Tomasi, M. Cossi, J. M. Millam, M. Klene, C. Adamo, R. Cammi, 
 J. W. Ochterski, R. L. Martin, K. Morokuma, O. Farkas, 
 J. B. Foresman, and D. J. Fox, Gaussian, Inc., Wallingford CT, 2016.
 
 ******************************************
 Gaussian 16:  ES64L-G16RevA.03 25-Dec-2016
                23-May-2024 
 ******************************************
 %chk=BOMD-Complex_gr.chk
 -----------------------------------------------------------
 # AM1 BOMD(NKE=23751,NTraj=10,GradOnly,Maxpoints=1) SCF=XQC
 -----------------------------------------------------------
 1/6=10,26=1,38=1,42=1,71=-1,73=23751,172=1/1,18;
 2/12=2,17=6,18=5,40=1/2;
 3/5=2,25=1,41=700000,71=1/1,2,3;
 4/35=1/1;
 5/5=2,8=3,13=1,35=1,38=5/2,8;
 6/7=2,8=2,9=2,10=2,28=1/1;
 7//1,2,3,16;
 1/6=10,26=1,42=1,71=-1,73=23751/18(2);
 2//2;
 99//99;
 2/29=1/2;
 3/5=2,25=1,41=700000,71=1,135=20/1,2,3;
 4/5=5,16=3,35=1/1;
 5/5=2,8=3,13=1,35=1,38=5/2,8;
 7//1,2,3,16;
 1/6=10,26=1,42=1,71=-1,73=23751/18(-5);
 2/29=1/2;
 6/7=2,8=2,9=2,10=2,19=2,28=1/1;
 99/9=1/99;
 ----------------------------------------------------------------------
 BOMD starting from optimized structure of H-bonded complex AM1 level o
 f theory 10 trajectories of 1 point each Random initial velocities of 
 atoms for T=298K (=7078 microHartree nuclear kinetic energy for 6-atom
  system) Default StepSize
 ----------------------------------------------------------------------
 Symbolic Z-matrix:
 Charge =  0 Multiplicity = 2
 6                    -1.49637  -0.30655  -0.00008 
 1                    -1.28189  -1.37608   0.00092 
 1                    -2.54575  -0.01018  -0.00134 
 8                    -0.61427   0.51494   0.00021 
 8                     2.06798  -0.1346   -0.00015 
 1                     1.17617   0.18288   0.00048 
 
 TRJ-TRJ-TRJ-TRJ-TRJ-TRJ-TRJ-TRJ-TRJ-TRJ-TRJ-TRJ-TRJ-TRJ-TRJ-TRJ-TRJ-TRJ
 ------------------------------------------------------------------------
 INPUT DATA FOR L118
 ------------------------------------------------------------------------

 General parameters:
 Max. points for each Traj.   =       1
 Total Number of Trajectories =      10
 Random Number Generator Seed =  398465
 Fixed Trajectory Time Step   =   0.0250 femtosec

 Sampling parameters:
 Initial velocities randomly generated.

 Integration parameters:
 Hessian evaluation           = Gradient only.
 Integration Scheme           = Velocity Verlet                     

 Follow Rxn Path              = False
 Project trans/rot in grad.   = True 
 ------------------------------------------------------------------------
 TRJ-TRJ-TRJ-TRJ-TRJ-TRJ-TRJ-TRJ-TRJ-TRJ-TRJ-TRJ-TRJ-TRJ-TRJ-TRJ-TRJ-TRJ
                          Input orientation:                          
 ---------------------------------------------------------------------
 Center     Atomic      Atomic             Coordinates (Angstroms)
 Number     Number       Type             X           Y           Z
 ---------------------------------------------------------------------
      1          6           0       -1.496366   -0.306552   -0.000080
      2          1           0       -1.281893   -1.376082    0.000916
      3          1           0       -2.545752   -0.010183   -0.001343
      4          8           0       -0.614267    0.514938    0.000206
      5          8           0        2.067975   -0.134601   -0.000152
      6          1           0        1.176171    0.182877    0.000480
 ---------------------------------------------------------------------
                    Distance matrix (angstroms):
                    1          2          3          4          5
     1  C    0.000000
     2  H    1.090823   0.000000
     3  H    1.090434   1.860920   0.000000
     4  O    1.205381   2.005413   2.001597   0.000000
     5  O    3.568486   3.572519   4.615404   2.759769   0.000000
     6  H    2.716983   2.910744   3.726927   1.820970   0.946629
                    6
     6  H    0.000000
 Stoichiometry    CH3O2(2)
 Framework group  C1[X(CH3O2)]
 Deg. of freedom    12
 Full point group                 C1      NOp   1
 Largest Abelian subgroup         C1      NOp   1
 Largest concise Abelian subgroup C1      NOp   1
                         Standard orientation:                         
 ---------------------------------------------------------------------
 Center     Atomic      Atomic             Coordinates (Angstroms)
 Number     Number       Type             X           Y           Z
 ---------------------------------------------------------------------
      1          6           0        1.496366    0.306552   -0.000080
      2          1           0        1.281893    1.376082    0.000916
      3          1           0        2.545752    0.010183   -0.001343
      4          8           0        0.614267   -0.514938    0.000206
      5          8           0       -2.067975    0.134601   -0.000152
      6          1           0       -1.176171   -0.182877    0.000480
 ---------------------------------------------------------------------
 Rotational constants (GHZ):          67.1164115           4.5618613           4.2715284
 Standard basis: VSTO-6G (5D, 7F)
 There are    15 symmetry adapted cartesian basis functions of A   symmetry.
 There are    15 symmetry adapted basis functions of A   symmetry.
    15 basis functions,    90 primitive gaussians,    15 cartesian basis functions
    10 alpha electrons        9 beta electrons
       nuclear repulsion energy        60.7023743064 Hartrees.
 Integral buffers will be    131072 words long.
 Regular integral format.
 Two-electron integral symmetry is turned off.
 Do NDO integrals.
 One-electron integrals computed using PRISM.
 NBasis=    15 RedAO= F EigKep=  0.00D+00  NBF=    15
 NBsUse=    15 1.00D-04 EigRej=  0.00D+00 NBFU=    15
 Simple Huckel Guess.
 Initial guess <Sx>= 0.0000 <Sy>= 0.0000 <Sz>= 0.5000 <S**2>= 0.7500 S= 0.5000
 Keep J ints in memory in canonical form, NReq=859713.
 Overlap will be assumed to be unity.
 Requested convergence on RMS density matrix=1.00D-08 within  32 cycles.
 Requested convergence on MAX density matrix=1.00D-06.
 Requested convergence on             energy=1.00D-06.
 No special actions if energy rises.
 Rare condition: small coef for last iteration:  0.000D+00
 SCF Done:  E(UAM1) = -0.474947557348E-01 A.U. after   23 cycles
            NFock= 22  Conv=0.42D-08     -V/T= 0.9990
 <Sx>= 0.0000 <Sy>= 0.0000 <Sz>= 0.5000 <S**2>= 0.7513 S= 0.5006
 <L.S>= 0.000000000000E+00
 Annihilation of the first spin contaminant:
 S**2 before annihilation     0.7513,   after     0.7500
 QCSCF skips out because SCF is already converged.

 **********************************************************************

            Population analysis using the SCF density.

 **********************************************************************

 Orbital symmetries:
 Alpha Orbitals:
       Occupied  (A) (A) (A) (A) (A) (A) (A) (A) (A) (A)
       Virtual   (A) (A) (A) (A) (A)
 Beta  Orbitals:
       Occupied  (A) (A) (A) (A) (A) (A) (A) (A) (A)
       Virtual   (A) (A) (A) (A) (A) (A)
 The electronic state is 2-A.
 Alpha  occ. eigenvalues --   -1.47818  -1.31797  -0.94176  -0.67034  -0.62978
 Alpha  occ. eigenvalues --   -0.59065  -0.56364  -0.52691  -0.47040  -0.41269
 Alpha virt. eigenvalues --    0.01686   0.10832   0.13719   0.18867   0.22595
  Beta  occ. eigenvalues --   -1.47798  -1.18721  -0.94159  -0.66576  -0.62501
  Beta  occ. eigenvalues --   -0.56890  -0.56369  -0.44029  -0.41230
  Beta virt. eigenvalues --    0.00850   0.01684   0.10837   0.13737   0.19592
  Beta virt. eigenvalues --    0.23549
          Condensed to atoms (all electrons):
               1          2          3          4          5          6
     1  C    3.834770   0.000000   0.000000   0.000000   0.000000   0.000000
     2  H    0.000000   0.929654   0.000000   0.000000   0.000000   0.000000
     3  H    0.000000   0.000000   0.928462   0.000000   0.000000   0.000000
     4  O    0.000000   0.000000   0.000000   6.292914   0.000000   0.000000
     5  O    0.000000   0.000000   0.000000   0.000000   6.222622   0.000000
     6  H    0.000000   0.000000   0.000000   0.000000   0.000000   0.791577
          Atomic-Atomic Spin Densities.
               1          2          3          4          5          6
     1  C    0.000023   0.000000   0.000000   0.000000   0.000000   0.000000
     2  H    0.000000   0.000050   0.000000   0.000000   0.000000   0.000000
     3  H    0.000000   0.000000  -0.000206   0.000000   0.000000   0.000000
     4  O    0.000000   0.000000   0.000000  -0.000998   0.000000   0.000000
     5  O    0.000000   0.000000   0.000000   0.000000   1.031776   0.000000
     6  H    0.000000   0.000000   0.000000   0.000000   0.000000  -0.030645
 Mulliken charges and spin densities:
               1          2
     1  C    0.165230   0.000023
     2  H    0.070346   0.000050
     3  H    0.071538  -0.000206
     4  O   -0.292914  -0.000998
     5  O   -0.222622   1.031776
     6  H    0.208423  -0.030645
 Sum of Mulliken charges =   0.00000   1.00000
 Mulliken charges and spin densities with hydrogens summed into heavy atoms:
               1          2
     1  C    0.307114  -0.000133
     4  O   -0.292914  -0.000998
     5  O   -0.014200   1.001130
 Charge=              0.0000 electrons
 Dipole moment (field-independent basis, Debye):
    X=              3.3823    Y=              1.1233    Z=              0.0004  Tot=              3.5639
 N-N= 6.070237430637D+01 E-N=-5.861033040607D+01  KE=-4.840436750448D+01
 Calling FoFJK, ICntrl=      2127 FMM=F ISym2X=0 I1Cent= 0 IOpClX= 1 NMat=1 NMatS=1 NMatT=0.
 ***** Axes restored to original set *****
 -------------------------------------------------------------------
 Center     Atomic                   Forces (Hartrees/Bohr)
 Number     Number              X              Y              Z
 -------------------------------------------------------------------
      1        6          -0.029120071   -0.026842868   -0.000008658
      2        1          -0.000002772   -0.016485249    0.000011014
      3        1          -0.016749791    0.001052234   -0.000016697
      4        8           0.029326031    0.045080861    0.000010952
      5        8           0.006588577   -0.002795444   -0.000004440
      6        1           0.009958026   -0.000009534    0.000007829
 -------------------------------------------------------------------
 Cartesian Forces:  Max     0.045080861 RMS     0.016938830
 TRJ-TRJ-TRJ-TRJ-TRJ-TRJ-TRJ-TRJ-TRJ-TRJ-TRJ-TRJ-TRJ-TRJ-TRJ-TRJ-TRJ-TRJ
          ******** Start new trajectory calculation ********
 Trajectory Number     1    Step Number     1
 Get start point for trajectory     1

 Start point information 
 Time (fs)     0.000000
 EKin =       0.0237510; EPot =      -0.0474948; ETot =      -0.0237438 A.U.
 Angular momentum (instantaneous)
   JX =  0.2454886351D-16  JY =  0.1222215609D-14  JZ = -0.9484955388D-14
 Jtot =  0.9563409034D-14 H-BAR;  J (Quantum Number) =  0.0000000000D+00
 Total energy  -2.374376D-02 A.U.
 Total angular momentum   9.563409D-15 h-bar
 Cartesian coordinates: (bohr)
 I=    1 X=   2.933167850344D+00 Y=   6.272133729472D-01 Z=  -1.494553129627D-04
 I=    2 X=   2.527872781627D+00 Y=   2.648332187519D+00 Z=   1.732711907104D-03
 I=    3 X=   4.916219944297D+00 Y=   6.715697179839D-02 Z=  -2.536179408288D-03
 I=    4 X=   1.266242200857D+00 Y=  -9.251776071848D-01 Z=   3.910063586629D-04
 I=    5 X=  -3.802460480323D+00 Y=   3.022736173077D-01 Z=  -2.855155939314D-04
 I=    6 X=  -2.117195211737D+00 Y=  -2.976729886775D-01 Z=   9.087913167937D-04
 MW cartesian velocity: (sqrt(amu)*bohr/sec)
 I=    1 X=   3.217777231512D+13 Y=   1.838188565916D+13 Z=  -7.292605321020D+12
 I=    2 X=   7.333893919398D+13 Y=   2.503563812371D+13 Z=  -7.564948512333D+12
 I=    3 X=   6.989184981166D+12 Y=   7.413040165996D+13 Z=   4.981750177738D+13
 I=    4 X=  -8.967685600223D+13 Y=  -3.554038974491D+13 Z=  -1.729021460765D+13
 I=    5 X=   1.511877590328D+13 Y=  -1.528802849084D+13 Z=  -6.691657566568D+12
 I=    6 X=   1.056634476239D+14 Y=   3.989557975048D+13 Z=   7.845068214675D+13
 TRJ-TRJ-TRJ-TRJ-TRJ-TRJ-TRJ-TRJ-TRJ-TRJ-TRJ-TRJ-TRJ-TRJ-TRJ-TRJ-TRJ-TRJ
 
 
 TRJ-TRJ-TRJ-TRJ-TRJ-TRJ-TRJ-TRJ-TRJ-TRJ-TRJ-TRJ-TRJ-TRJ-TRJ-TRJ-TRJ-TRJ
 Trajectory Number     1    Step Number     2
 Start point not scaled!

 Summary information for step      2
 Time (fs)     0.000000
 EKin =       0.0237510; EPot =      -0.0474948; ETot =      -0.0237438 A.U.
 Angular momentum (instantaneous)
   JX =  0.2454886351D-16  JY =  0.1222215609D-14  JZ = -0.9484955388D-14
 Jtot =  0.9563409034D-14 H-BAR;  J (Quantum Number) =  0.0000000000D+00
 Total energy  -2.374376D-02 A.U.
 Total angular momentum   9.563409D-15 h-bar
 Cartesian coordinates: (bohr)
 I=    1 X=   2.933167850344D+00 Y=   6.272133729472D-01 Z=  -1.494553129627D-04
 I=    2 X=   2.527872781627D+00 Y=   2.648332187519D+00 Z=   1.732711907104D-03
 I=    3 X=   4.916219944297D+00 Y=   6.715697179839D-02 Z=  -2.536179408288D-03
 I=    4 X=   1.266242200857D+00 Y=  -9.251776071848D-01 Z=   3.910063586629D-04
 I=    5 X=  -3.802460480323D+00 Y=   3.022736173077D-01 Z=  -2.855155939314D-04
 I=    6 X=  -2.117195211737D+00 Y=  -2.976729886775D-01 Z=   9.087913167937D-04
 MW cartesian velocity: (sqrt(amu)*bohr/sec)
 I=    1 X=   3.217777231512D+13 Y=   1.838188565916D+13 Z=  -7.292605321020D+12
 I=    2 X=   7.333893919398D+13 Y=   2.503563812371D+13 Z=  -7.564948512333D+12
 I=    3 X=   6.989184981166D+12 Y=   7.413040165996D+13 Z=   4.981750177738D+13
 I=    4 X=  -8.967685600223D+13 Y=  -3.554038974491D+13 Z=  -1.729021460765D+13
 I=    5 X=   1.511877590328D+13 Y=  -1.528802849084D+13 Z=  -6.691657566568D+12
 I=    6 X=   1.056634476239D+14 Y=   3.989557975048D+13 Z=   7.845068214675D+13


 Final analysis for traj   1
 Traj calculation does not meet the product criterion.


 Analysis of fragment    1

 Instantaneous rotational analysis:
 Q(CM): X= -0.944603268378D-16 Y=  0.200728194530D-16 Z= -0.138369619391D-19
 V(CM): X= -0.885565564105D-03 Y= -0.885565564105D-03 Z=  0.000000000000D+00
 Angular momentum in principle axes
   JX = -0.1223842246D-14  JY = -0.8566895725D-14  JZ = -0.6119211232D-15
 Jtot =  0.8675479218D-14  H-BAR;  J (Quantum Number) =  0.0000000000D+00
 Angular momentum in original axes
   JX = -0.6359444382D-15  JY = -0.1212682733D-14  JZ = -0.8566733037D-14
 Jtot =  0.8675479218D-14  H-BAR;  J (Quantum Number) =  0.0000000000D+00

 Etrn =  0.1155455742D-33 Erot =  0.5250389343D-34 Evib(kin) =  0.2375100000D-01 au
 Epot = -0.4749475573D-01 Etot = -0.2374375573D-01 au

 Trajectory summary for trajectory      1
 Energy/gradient evaluations            1
 Hessian evaluations                    1

 Trajectory summary
   Time (fs)   Kinetic (au)   Potent (au)   Delta E (au)     Delta A (h-bar)
     0.000000     0.0237510    -0.0474948     0.0000000     0.0000000000000000
                             Max Error =      0.0000000     0.0000000000000000
 Trajectory      1 has not met product criteria!
 
 TRJ-TRJ-TRJ-TRJ-TRJ-TRJ-TRJ-TRJ-TRJ-TRJ-TRJ-TRJ-TRJ-TRJ-TRJ-TRJ-TRJ-TRJ
 
 TRJ-TRJ-TRJ-TRJ-TRJ-TRJ-TRJ-TRJ-TRJ-TRJ-TRJ-TRJ-TRJ-TRJ-TRJ-TRJ-TRJ-TRJ
          ******** Start new trajectory calculation ********
 Trajectory Number     2    Step Number     1
 Get start point for trajectory     2

 Start point information 
 Time (fs)     0.000000
 EKin =       0.0237510; EPot =      -0.0474948; ETot =      -0.0237438 A.U.
 Angular momentum (instantaneous)
   JX =  0.1174667094D-14  JY = -0.2469839491D-14  JZ =  0.1162688835D-13
 Jtot =  0.1194422382D-13 H-BAR;  J (Quantum Number) =  0.0000000000D+00
 Total energy  -2.374376D-02 A.U.
 Total angular momentum   1.194422D-14 h-bar
 Cartesian coordinates: (bohr)
 I=    1 X=   2.933167850344D+00 Y=   6.272133729472D-01 Z=  -1.494553129627D-04
 I=    2 X=   2.527872781627D+00 Y=   2.648332187519D+00 Z=   1.732711907104D-03
 I=    3 X=   4.916219944297D+00 Y=   6.715697179839D-02 Z=  -2.536179408288D-03
 I=    4 X=   1.266242200857D+00 Y=  -9.251776071848D-01 Z=   3.910063586629D-04
 I=    5 X=  -3.802460480323D+00 Y=   3.022736173077D-01 Z=  -2.855155939314D-04
 I=    6 X=  -2.117195211737D+00 Y=  -2.976729886775D-01 Z=   9.087913167937D-04
 MW cartesian velocity: (sqrt(amu)*bohr/sec)
 I=    1 X=  -5.241380867375D+13 Y=  -2.397720320805D+13 Z=  -1.044092691454D+13
 I=    2 X=   5.818911994709D+12 Y=   8.229952703349D+13 Z=  -2.707631084690D+13
 I=    3 X=   8.131609343643D+13 Y=   6.751542185694D+13 Z=   9.988443387962D+13
 I=    4 X=   6.055442177770D+12 Y=  -3.652777349592D+13 Z=  -2.784117455172D+13
 I=    5 X=  -9.936078488343D+11 Y=   1.264927688836D+13 Z=   2.923196226747D+12
 I=    6 X=   7.356013688599D+13 Y=   2.804878674388D+13 Z=   6.248806386273D+13
 TRJ-TRJ-TRJ-TRJ-TRJ-TRJ-TRJ-TRJ-TRJ-TRJ-TRJ-TRJ-TRJ-TRJ-TRJ-TRJ-TRJ-TRJ
 
 
 TRJ-TRJ-TRJ-TRJ-TRJ-TRJ-TRJ-TRJ-TRJ-TRJ-TRJ-TRJ-TRJ-TRJ-TRJ-TRJ-TRJ-TRJ
 Trajectory Number     2    Step Number     2
 Start point not scaled!

 Summary information for step      2
 Time (fs)     0.000000
 EKin =       0.0237510; EPot =      -0.0474948; ETot =      -0.0237438 A.U.
 Angular momentum (instantaneous)
   JX =  0.1174667094D-14  JY = -0.2469839491D-14  JZ =  0.1162688835D-13
 Jtot =  0.1194422382D-13 H-BAR;  J (Quantum Number) =  0.0000000000D+00
 Total energy  -2.374376D-02 A.U.
 Total angular momentum   1.194422D-14 h-bar
 Cartesian coordinates: (bohr)
 I=    1 X=   2.933167850344D+00 Y=   6.272133729472D-01 Z=  -1.494553129627D-04
 I=    2 X=   2.527872781627D+00 Y=   2.648332187519D+00 Z=   1.732711907104D-03
 I=    3 X=   4.916219944297D+00 Y=   6.715697179839D-02 Z=  -2.536179408288D-03
 I=    4 X=   1.266242200857D+00 Y=  -9.251776071848D-01 Z=   3.910063586629D-04
 I=    5 X=  -3.802460480323D+00 Y=   3.022736173077D-01 Z=  -2.855155939314D-04
 I=    6 X=  -2.117195211737D+00 Y=  -2.976729886775D-01 Z=   9.087913167937D-04
 MW cartesian velocity: (sqrt(amu)*bohr/sec)
 I=    1 X=  -5.241380867375D+13 Y=  -2.397720320805D+13 Z=  -1.044092691454D+13
 I=    2 X=   5.818911994709D+12 Y=   8.229952703349D+13 Z=  -2.707631084690D+13
 I=    3 X=   8.131609343643D+13 Y=   6.751542185694D+13 Z=   9.988443387962D+13
 I=    4 X=   6.055442177770D+12 Y=  -3.652777349592D+13 Z=  -2.784117455172D+13
 I=    5 X=  -9.936078488343D+11 Y=   1.264927688836D+13 Z=   2.923196226747D+12
 I=    6 X=   7.356013688599D+13 Y=   2.804878674388D+13 Z=   6.248806386273D+13


 Final analysis for traj   2
 Traj calculation does not meet the product criterion.


 Analysis of fragment    1

 Instantaneous rotational analysis:
 Q(CM): X= -0.944603268378D-16 Y=  0.200728194530D-16 Z= -0.138369619391D-19
 V(CM): X= -0.118075408547D-02 Y=  0.664174173079D-03 Z= -0.590377042736D-03
 Angular momentum in principle axes
   JX = -0.1223842246D-14  JY =  0.2141723931D-13  JZ =  0.7649014040D-15
 Jtot =  0.2146581011D-13  H-BAR;  J (Quantum Number) =  0.0000000000D+00
 Angular momentum in original axes
   JX =  0.7399338800D-15  JY = -0.1235683835D-14  JZ =  0.2141743652D-13
 Jtot =  0.2146581011D-13  H-BAR;  J (Quantum Number) =  0.0000000000D+00

 Etrn =  0.1043119767D-33 Erot =  0.3047932030D-33 Evib(kin) =  0.2375100000D-01 au
 Epot = -0.4749475573D-01 Etot = -0.2374375573D-01 au

 Trajectory summary for trajectory      2
 Energy/gradient evaluations            0
 Hessian evaluations                    0

 Trajectory summary
   Time (fs)   Kinetic (au)   Potent (au)   Delta E (au)     Delta A (h-bar)
     0.000000     0.0237510    -0.0474948     0.0000000     0.0000000000000000
                             Max Error =      0.0000000     0.0000000000000000
 Trajectory      2 has not met product criteria!
 
 TRJ-TRJ-TRJ-TRJ-TRJ-TRJ-TRJ-TRJ-TRJ-TRJ-TRJ-TRJ-TRJ-TRJ-TRJ-TRJ-TRJ-TRJ
 
 TRJ-TRJ-TRJ-TRJ-TRJ-TRJ-TRJ-TRJ-TRJ-TRJ-TRJ-TRJ-TRJ-TRJ-TRJ-TRJ-TRJ-TRJ
          ******** Start new trajectory calculation ********
 Trajectory Number     3    Step Number     1
 Get start point for trajectory     3

 Start point information 
 Time (fs)     0.000000
 EKin =       0.0237510; EPot =      -0.0474948; ETot =      -0.0237438 A.U.
 Angular momentum (instantaneous)
   JX = -0.3700697926D-15  JY =  0.6185119020D-15  JZ = -0.6119309886D-14
 Jtot =  0.6161611973D-14 H-BAR;  J (Quantum Number) =  0.0000000000D+00
 Total energy  -2.374376D-02 A.U.
 Total angular momentum   6.161612D-15 h-bar
 Cartesian coordinates: (bohr)
 I=    1 X=   2.933167850344D+00 Y=   6.272133729472D-01 Z=  -1.494553129627D-04
 I=    2 X=   2.527872781627D+00 Y=   2.648332187519D+00 Z=   1.732711907104D-03
 I=    3 X=   4.916219944297D+00 Y=   6.715697179839D-02 Z=  -2.536179408288D-03
 I=    4 X=   1.266242200857D+00 Y=  -9.251776071848D-01 Z=   3.910063586629D-04
 I=    5 X=  -3.802460480323D+00 Y=   3.022736173077D-01 Z=  -2.855155939314D-04
 I=    6 X=  -2.117195211737D+00 Y=  -2.976729886775D-01 Z=   9.087913167937D-04
 MW cartesian velocity: (sqrt(amu)*bohr/sec)
 I=    1 X=  -7.369889467181D+12 Y=   1.344466684089D+13 Z=  -5.089430440535D+13
 I=    2 X=   1.003056395352D+14 Y=   5.285106818855D+13 Z=   4.038906711728D+13
 I=    3 X=   7.331941763906D+13 Y=   1.423593805168D+13 Z=   1.038057321286D+14
 I=    4 X=  -2.027041270239D+13 Y=  -2.942186198254D+13 Z=  -2.307664829830D+12
 I=    5 X=  -1.276995937736D+13 Y=  -2.018754069680D+13 Z=  -4.121432573886D+10
 I=    6 X=  -1.656781921997D+13 Y=   8.415479139484D+13 Z=   4.077995933871D+13
 TRJ-TRJ-TRJ-TRJ-TRJ-TRJ-TRJ-TRJ-TRJ-TRJ-TRJ-TRJ-TRJ-TRJ-TRJ-TRJ-TRJ-TRJ
 
 
 TRJ-TRJ-TRJ-TRJ-TRJ-TRJ-TRJ-TRJ-TRJ-TRJ-TRJ-TRJ-TRJ-TRJ-TRJ-TRJ-TRJ-TRJ
 Trajectory Number     3    Step Number     2
 Start point not scaled!

 Summary information for step      2
 Time (fs)     0.000000
 EKin =       0.0237510; EPot =      -0.0474948; ETot =      -0.0237438 A.U.
 Angular momentum (instantaneous)
   JX = -0.3700697926D-15  JY =  0.6185119020D-15  JZ = -0.6119309886D-14
 Jtot =  0.6161611973D-14 H-BAR;  J (Quantum Number) =  0.0000000000D+00
 Total energy  -2.374376D-02 A.U.
 Total angular momentum   6.161612D-15 h-bar
 Cartesian coordinates: (bohr)
 I=    1 X=   2.933167850344D+00 Y=   6.272133729472D-01 Z=  -1.494553129627D-04
 I=    2 X=   2.527872781627D+00 Y=   2.648332187519D+00 Z=   1.732711907104D-03
 I=    3 X=   4.916219944297D+00 Y=   6.715697179839D-02 Z=  -2.536179408288D-03
 I=    4 X=   1.266242200857D+00 Y=  -9.251776071848D-01 Z=   3.910063586629D-04
 I=    5 X=  -3.802460480323D+00 Y=   3.022736173077D-01 Z=  -2.855155939314D-04
 I=    6 X=  -2.117195211737D+00 Y=  -2.976729886775D-01 Z=   9.087913167937D-04
 MW cartesian velocity: (sqrt(amu)*bohr/sec)
 I=    1 X=  -7.369889467181D+12 Y=   1.344466684089D+13 Z=  -5.089430440535D+13
 I=    2 X=   1.003056395352D+14 Y=   5.285106818855D+13 Z=   4.038906711728D+13
 I=    3 X=   7.331941763906D+13 Y=   1.423593805168D+13 Z=   1.038057321286D+14
 I=    4 X=  -2.027041270239D+13 Y=  -2.942186198254D+13 Z=  -2.307664829830D+12
 I=    5 X=  -1.276995937736D+13 Y=  -2.018754069680D+13 Z=  -4.121432573886D+10
 I=    6 X=  -1.656781921997D+13 Y=   8.415479139484D+13 Z=   4.077995933871D+13


 Final analysis for traj   3
 Traj calculation does not meet the product criterion.


 Analysis of fragment    1

 Instantaneous rotational analysis:
 Q(CM): X= -0.944603268378D-16 Y=  0.200728194530D-16 Z= -0.138369619391D-19
 V(CM): X=  0.442782782052D-03 Y=  0.295188521368D-03 Z= -0.442782782052D-03
 Angular momentum in principle axes
   JX =  0.1223842246D-14  JY = -0.4895368986D-14  JZ = -0.1682783089D-14
 Jtot =  0.5319227977D-14  H-BAR;  J (Quantum Number) =  0.0000000000D+00
 Angular momentum in original axes
   JX = -0.1658004342D-14  JY =  0.1256348002D-14  JZ = -0.4895589604D-14
 Jtot =  0.5319227977D-14  H-BAR;  J (Quantum Number) =  0.0000000000D+00

 Etrn =  0.1067191762D-33 Erot =  0.4548179535D-34 Evib(kin) =  0.2375100000D-01 au
 Epot = -0.4749475573D-01 Etot = -0.2374375573D-01 au

 Trajectory summary for trajectory      3
 Energy/gradient evaluations            0
 Hessian evaluations                    0

 Trajectory summary
   Time (fs)   Kinetic (au)   Potent (au)   Delta E (au)     Delta A (h-bar)
     0.000000     0.0237510    -0.0474948     0.0000000     0.0000000000000000
                             Max Error =      0.0000000     0.0000000000000000
 Trajectory      3 has not met product criteria!
 
 TRJ-TRJ-TRJ-TRJ-TRJ-TRJ-TRJ-TRJ-TRJ-TRJ-TRJ-TRJ-TRJ-TRJ-TRJ-TRJ-TRJ-TRJ
 
 TRJ-TRJ-TRJ-TRJ-TRJ-TRJ-TRJ-TRJ-TRJ-TRJ-TRJ-TRJ-TRJ-TRJ-TRJ-TRJ-TRJ-TRJ
          ******** Start new trajectory calculation ********
 Trajectory Number     4    Step Number     1
 Get start point for trajectory     4

 Start point information 
 Time (fs)     0.000000
 EKin =       0.0237510; EPot =      -0.0474948; ETot =      -0.0237438 A.U.
 Angular momentum (instantaneous)
   JX = -0.7089362004D-15  JY = -0.4883595129D-14  JZ = -0.9331100187D-14
 Jtot =  0.1055563938D-13 H-BAR;  J (Quantum Number) =  0.0000000000D+00
 Total energy  -2.374376D-02 A.U.
 Total angular momentum   1.055564D-14 h-bar
 Cartesian coordinates: (bohr)
 I=    1 X=   2.933167850344D+00 Y=   6.272133729472D-01 Z=  -1.494553129627D-04
 I=    2 X=   2.527872781627D+00 Y=   2.648332187519D+00 Z=   1.732711907104D-03
 I=    3 X=   4.916219944297D+00 Y=   6.715697179839D-02 Z=  -2.536179408288D-03
 I=    4 X=   1.266242200857D+00 Y=  -9.251776071848D-01 Z=   3.910063586629D-04
 I=    5 X=  -3.802460480323D+00 Y=   3.022736173077D-01 Z=  -2.855155939314D-04
 I=    6 X=  -2.117195211737D+00 Y=  -2.976729886775D-01 Z=   9.087913167937D-04
 MW cartesian velocity: (sqrt(amu)*bohr/sec)
 I=    1 X=   4.457070439538D+13 Y=  -1.812702665657D+13 Z=  -4.096189595850D+13
 I=    2 X=   8.669323838251D+13 Y=   3.462620511269D+13 Z=   2.604378987490D+13
 I=    3 X=   1.843213531954D+13 Y=   3.186897716105D+13 Z=   1.060988430960D+14
 I=    4 X=  -1.636256627233D+13 Y=   1.178798966007D+13 Z=  -1.706883728551D+13
 I=    5 X=  -4.780278355715D+13 Y=  -1.534747925351D+13 Z=  -1.143975877241D+13
 I=    6 X=  -3.299832682306D+12 Y=   1.023475328249D+13 Z=   1.227743737185D+14
 TRJ-TRJ-TRJ-TRJ-TRJ-TRJ-TRJ-TRJ-TRJ-TRJ-TRJ-TRJ-TRJ-TRJ-TRJ-TRJ-TRJ-TRJ
 
 
 TRJ-TRJ-TRJ-TRJ-TRJ-TRJ-TRJ-TRJ-TRJ-TRJ-TRJ-TRJ-TRJ-TRJ-TRJ-TRJ-TRJ-TRJ
 Trajectory Number     4    Step Number     2
 Start point not scaled!

 Summary information for step      2
 Time (fs)     0.000000
 EKin =       0.0237510; EPot =      -0.0474948; ETot =      -0.0237438 A.U.
 Angular momentum (instantaneous)
   JX = -0.7089362004D-15  JY = -0.4883595129D-14  JZ = -0.9331100187D-14
 Jtot =  0.1055563938D-13 H-BAR;  J (Quantum Number) =  0.0000000000D+00
 Total energy  -2.374376D-02 A.U.
 Total angular momentum   1.055564D-14 h-bar
 Cartesian coordinates: (bohr)
 I=    1 X=   2.933167850344D+00 Y=   6.272133729472D-01 Z=  -1.494553129627D-04
 I=    2 X=   2.527872781627D+00 Y=   2.648332187519D+00 Z=   1.732711907104D-03
 I=    3 X=   4.916219944297D+00 Y=   6.715697179839D-02 Z=  -2.536179408288D-03
 I=    4 X=   1.266242200857D+00 Y=  -9.251776071848D-01 Z=   3.910063586629D-04
 I=    5 X=  -3.802460480323D+00 Y=   3.022736173077D-01 Z=  -2.855155939314D-04
 I=    6 X=  -2.117195211737D+00 Y=  -2.976729886775D-01 Z=   9.087913167937D-04
 MW cartesian velocity: (sqrt(amu)*bohr/sec)
 I=    1 X=   4.457070439538D+13 Y=  -1.812702665657D+13 Z=  -4.096189595850D+13
 I=    2 X=   8.669323838251D+13 Y=   3.462620511269D+13 Z=   2.604378987490D+13
 I=    3 X=   1.843213531954D+13 Y=   3.186897716105D+13 Z=   1.060988430960D+14
 I=    4 X=  -1.636256627233D+13 Y=   1.178798966007D+13 Z=  -1.706883728551D+13
 I=    5 X=  -4.780278355715D+13 Y=  -1.534747925351D+13 Z=  -1.143975877241D+13
 I=    6 X=  -3.299832682306D+12 Y=   1.023475328249D+13 Z=   1.227743737185D+14


 Final analysis for traj   4
 Traj calculation does not meet the product criterion.


 Analysis of fragment    1

 Instantaneous rotational analysis:
 Q(CM): X= -0.944603268378D-16 Y=  0.200728194530D-16 Z= -0.138369619391D-19
 V(CM): X=  0.857891640226D-03 Y=  0.405884216881D-03 Z=  0.295188521368D-03
 Angular momentum in principle axes
   JX = -0.7343053479D-14  JY = -0.1422716611D-13  JZ =  0.0000000000D+00
 Jtot =  0.1601039319D-13  H-BAR;  J (Quantum Number) =  0.0000000000D+00
 Angular momentum in original axes
   JX = -0.1456989656D-15  JY = -0.7343678416D-14  JZ = -0.1422609747D-13
 Jtot =  0.1601039319D-13  H-BAR;  J (Quantum Number) =  0.0000000000D+00

 Etrn =  0.1397178688D-33 Erot =  0.1687903650D-33 Evib(kin) =  0.2375100000D-01 au
 Epot = -0.4749475573D-01 Etot = -0.2374375573D-01 au

 Trajectory summary for trajectory      4
 Energy/gradient evaluations            0
 Hessian evaluations                    0

 Trajectory summary
   Time (fs)   Kinetic (au)   Potent (au)   Delta E (au)     Delta A (h-bar)
     0.000000     0.0237510    -0.0474948     0.0000000     0.0000000000000000
                             Max Error =      0.0000000     0.0000000000000000
 Trajectory      4 has not met product criteria!
 
 TRJ-TRJ-TRJ-TRJ-TRJ-TRJ-TRJ-TRJ-TRJ-TRJ-TRJ-TRJ-TRJ-TRJ-TRJ-TRJ-TRJ-TRJ
 
 TRJ-TRJ-TRJ-TRJ-TRJ-TRJ-TRJ-TRJ-TRJ-TRJ-TRJ-TRJ-TRJ-TRJ-TRJ-TRJ-TRJ-TRJ
          ******** Start new trajectory calculation ********
 Trajectory Number     5    Step Number     1
 Get start point for trajectory     5

 Start point information 
 Time (fs)     0.000000
 EKin =       0.0237510; EPot =      -0.0474948; ETot =      -0.0237438 A.U.
 Angular momentum (instantaneous)
   JX = -0.3301540835D-15  JY = -0.1218052157D-14  JZ = -0.3671356361D-14
 Jtot =  0.3882204310D-14 H-BAR;  J (Quantum Number) =  0.0000000000D+00
 Total energy  -2.374376D-02 A.U.
 Total angular momentum   3.882204D-15 h-bar
 Cartesian coordinates: (bohr)
 I=    1 X=   2.933167850344D+00 Y=   6.272133729472D-01 Z=  -1.494553129627D-04
 I=    2 X=   2.527872781627D+00 Y=   2.648332187519D+00 Z=   1.732711907104D-03
 I=    3 X=   4.916219944297D+00 Y=   6.715697179839D-02 Z=  -2.536179408288D-03
 I=    4 X=   1.266242200857D+00 Y=  -9.251776071848D-01 Z=   3.910063586629D-04
 I=    5 X=  -3.802460480323D+00 Y=   3.022736173077D-01 Z=  -2.855155939314D-04
 I=    6 X=  -2.117195211737D+00 Y=  -2.976729886775D-01 Z=   9.087913167937D-04
 MW cartesian velocity: (sqrt(amu)*bohr/sec)
 I=    1 X=   6.530313391793D+12 Y=  -1.331017303872D+13 Z=  -2.399672404176D+13
 I=    2 X=   1.376730994122D+14 Y=  -1.879866694301D+13 Z=   3.848131941608D+13
 I=    3 X=   6.428468206380D+13 Y=  -1.979727648535D+13 Z=   1.486599077198D+13
 I=    4 X=   1.906739001033D+13 Y=   3.674072243470D+13 Z=   2.625650543065D+12
 I=    5 X=  -8.412463276284D+13 Y=  -2.449323283267D+13 Z=  -1.485304480244D+13
 I=    6 X=   3.468410058212D+13 Y=   3.573274341553D+13 Z=   7.816803063725D+13
 TRJ-TRJ-TRJ-TRJ-TRJ-TRJ-TRJ-TRJ-TRJ-TRJ-TRJ-TRJ-TRJ-TRJ-TRJ-TRJ-TRJ-TRJ
 
 
 TRJ-TRJ-TRJ-TRJ-TRJ-TRJ-TRJ-TRJ-TRJ-TRJ-TRJ-TRJ-TRJ-TRJ-TRJ-TRJ-TRJ-TRJ
 Trajectory Number     5    Step Number     2
 Start point not scaled!

 Summary information for step      2
 Time (fs)     0.000000
 EKin =       0.0237510; EPot =      -0.0474948; ETot =      -0.0237438 A.U.
 Angular momentum (instantaneous)
   JX = -0.3301540835D-15  JY = -0.1218052157D-14  JZ = -0.3671356361D-14
 Jtot =  0.3882204310D-14 H-BAR;  J (Quantum Number) =  0.0000000000D+00
 Total energy  -2.374376D-02 A.U.
 Total angular momentum   3.882204D-15 h-bar
 Cartesian coordinates: (bohr)
 I=    1 X=   2.933167850344D+00 Y=   6.272133729472D-01 Z=  -1.494553129627D-04
 I=    2 X=   2.527872781627D+00 Y=   2.648332187519D+00 Z=   1.732711907104D-03
 I=    3 X=   4.916219944297D+00 Y=   6.715697179839D-02 Z=  -2.536179408288D-03
 I=    4 X=   1.266242200857D+00 Y=  -9.251776071848D-01 Z=   3.910063586629D-04
 I=    5 X=  -3.802460480323D+00 Y=   3.022736173077D-01 Z=  -2.855155939314D-04
 I=    6 X=  -2.117195211737D+00 Y=  -2.976729886775D-01 Z=   9.087913167937D-04
 MW cartesian velocity: (sqrt(amu)*bohr/sec)
 I=    1 X=   6.530313391793D+12 Y=  -1.331017303872D+13 Z=  -2.399672404176D+13
 I=    2 X=   1.376730994122D+14 Y=  -1.879866694301D+13 Z=   3.848131941608D+13
 I=    3 X=   6.428468206380D+13 Y=  -1.979727648535D+13 Z=   1.486599077198D+13
 I=    4 X=   1.906739001033D+13 Y=   3.674072243470D+13 Z=   2.625650543065D+12
 I=    5 X=  -8.412463276284D+13 Y=  -2.449323283267D+13 Z=  -1.485304480244D+13
 I=    6 X=   3.468410058212D+13 Y=   3.573274341553D+13 Z=   7.816803063725D+13


 Final analysis for traj   5
 Traj calculation does not meet the product criterion.


 Analysis of fragment    1

 Instantaneous rotational analysis:
 Q(CM): X= -0.944603268378D-16 Y=  0.200728194530D-16 Z= -0.138369619391D-19
 V(CM): X=  0.221391391026D-02 Y= -0.590377042736D-03 Z= -0.590377042736D-03
 Angular momentum in principle axes
   JX =  0.0000000000D+00  JY = -0.2325300268D-13  JZ =  0.4589408424D-15
 Jtot =  0.2325753126D-13  H-BAR;  J (Quantum Number) =  0.0000000000D+00
 Angular momentum in original axes
   JX =  0.4593712161D-15  JY = -0.1252070028D-16  JZ = -0.2325299081D-13
 Jtot =  0.2325753126D-13  H-BAR;  J (Quantum Number) =  0.0000000000D+00

 Etrn =  0.3418223237D-33 Erot =  0.3531721399D-33 Evib(kin) =  0.2375100000D-01 au
 Epot = -0.4749475573D-01 Etot = -0.2374375573D-01 au

 Trajectory summary for trajectory      5
 Energy/gradient evaluations            0
 Hessian evaluations                    0

 Trajectory summary
   Time (fs)   Kinetic (au)   Potent (au)   Delta E (au)     Delta A (h-bar)
     0.000000     0.0237510    -0.0474948     0.0000000     0.0000000000000000
                             Max Error =      0.0000000     0.0000000000000000
 Trajectory      5 has not met product criteria!
 
 TRJ-TRJ-TRJ-TRJ-TRJ-TRJ-TRJ-TRJ-TRJ-TRJ-TRJ-TRJ-TRJ-TRJ-TRJ-TRJ-TRJ-TRJ
 
 TRJ-TRJ-TRJ-TRJ-TRJ-TRJ-TRJ-TRJ-TRJ-TRJ-TRJ-TRJ-TRJ-TRJ-TRJ-TRJ-TRJ-TRJ
          ******** Start new trajectory calculation ********
 Trajectory Number     6    Step Number     1
 Get start point for trajectory     6

 Start point information 
 Time (fs)     0.000000
 EKin =       0.0237510; EPot =      -0.0474948; ETot =      -0.0237438 A.U.
 Angular momentum (instantaneous)
   JX = -0.1640627691D-14  JY =  0.9824770409D-14  JZ = -0.3672997816D-14
 Jtot =  0.1061643470D-13 H-BAR;  J (Quantum Number) =  0.0000000000D+00
 Total energy  -2.374376D-02 A.U.
 Total angular momentum   1.061643D-14 h-bar
 Cartesian coordinates: (bohr)
 I=    1 X=   2.933167850344D+00 Y=   6.272133729472D-01 Z=  -1.494553129627D-04
 I=    2 X=   2.527872781627D+00 Y=   2.648332187519D+00 Z=   1.732711907104D-03
 I=    3 X=   4.916219944297D+00 Y=   6.715697179839D-02 Z=  -2.536179408288D-03
 I=    4 X=   1.266242200857D+00 Y=  -9.251776071848D-01 Z=   3.910063586629D-04
 I=    5 X=  -3.802460480323D+00 Y=   3.022736173077D-01 Z=  -2.855155939314D-04
 I=    6 X=  -2.117195211737D+00 Y=  -2.976729886775D-01 Z=   9.087913167937D-04
 MW cartesian velocity: (sqrt(amu)*bohr/sec)
 I=    1 X=   2.136047386099D+13 Y=  -3.763683677211D+13 Z=  -3.306909943080D+13
 I=    2 X=   4.173459812516D+13 Y=   8.725273775696D+13 Z=   6.147112416538D+13
 I=    3 X=   6.332468527503D+13 Y=  -1.206193032759D+13 Z=  -1.055712107707D+12
 I=    4 X=  -1.965125811568D+13 Y=   2.125425625640D+13 Z=   1.362977642342D+13
 I=    5 X=  -4.690241093232D+13 Y=  -2.981920573915D+13 Z=  -1.704956752594D+13
 I=    6 X=   8.637071731914D+13 Y=   8.880100194043D+13 Z=   6.731751547699D+13
 TRJ-TRJ-TRJ-TRJ-TRJ-TRJ-TRJ-TRJ-TRJ-TRJ-TRJ-TRJ-TRJ-TRJ-TRJ-TRJ-TRJ-TRJ
 
 
 TRJ-TRJ-TRJ-TRJ-TRJ-TRJ-TRJ-TRJ-TRJ-TRJ-TRJ-TRJ-TRJ-TRJ-TRJ-TRJ-TRJ-TRJ
 Trajectory Number     6    Step Number     2
 Start point not scaled!

 Summary information for step      2
 Time (fs)     0.000000
 EKin =       0.0237510; EPot =      -0.0474948; ETot =      -0.0237438 A.U.
 Angular momentum (instantaneous)
   JX = -0.1640627691D-14  JY =  0.9824770409D-14  JZ = -0.3672997816D-14
 Jtot =  0.1061643470D-13 H-BAR;  J (Quantum Number) =  0.0000000000D+00
 Total energy  -2.374376D-02 A.U.
 Total angular momentum   1.061643D-14 h-bar
 Cartesian coordinates: (bohr)
 I=    1 X=   2.933167850344D+00 Y=   6.272133729472D-01 Z=  -1.494553129627D-04
 I=    2 X=   2.527872781627D+00 Y=   2.648332187519D+00 Z=   1.732711907104D-03
 I=    3 X=   4.916219944297D+00 Y=   6.715697179839D-02 Z=  -2.536179408288D-03
 I=    4 X=   1.266242200857D+00 Y=  -9.251776071848D-01 Z=   3.910063586629D-04
 I=    5 X=  -3.802460480323D+00 Y=   3.022736173077D-01 Z=  -2.855155939314D-04
 I=    6 X=  -2.117195211737D+00 Y=  -2.976729886775D-01 Z=   9.087913167937D-04
 MW cartesian velocity: (sqrt(amu)*bohr/sec)
 I=    1 X=   2.136047386099D+13 Y=  -3.763683677211D+13 Z=  -3.306909943080D+13
 I=    2 X=   4.173459812516D+13 Y=   8.725273775696D+13 Z=   6.147112416538D+13
 I=    3 X=   6.332468527503D+13 Y=  -1.206193032759D+13 Z=  -1.055712107707D+12
 I=    4 X=  -1.965125811568D+13 Y=   2.125425625640D+13 Z=   1.362977642342D+13
 I=    5 X=  -4.690241093232D+13 Y=  -2.981920573915D+13 Z=  -1.704956752594D+13
 I=    6 X=   8.637071731914D+13 Y=   8.880100194043D+13 Z=   6.731751547699D+13


 Final analysis for traj   6
 Traj calculation does not meet the product criterion.


 Analysis of fragment    1

 Instantaneous rotational analysis:
 Q(CM): X= -0.944603268378D-16 Y=  0.200728194530D-16 Z= -0.138369619391D-19
 V(CM): X= -0.295188521368D-03 Y= -0.118075408547D-02 Z= -0.590377042736D-03
 Angular momentum in principle axes
   JX =  0.8566895725D-14  JY = -0.4895368986D-14  JZ = -0.7649014040D-15
 Jtot =  0.9896535456D-14  H-BAR;  J (Quantum Number) =  0.0000000000D+00
 Angular momentum in original axes
   JX = -0.5942863408D-15  JY =  0.8579697243D-14  JZ = -0.4896634864D-14
 Jtot =  0.9896535456D-14  H-BAR;  J (Quantum Number) =  0.0000000000D+00

 Etrn =  0.3851519141D-34 Erot =  0.7241023767D-34 Evib(kin) =  0.2375100000D-01 au
 Epot = -0.4749475573D-01 Etot = -0.2374375573D-01 au

 Trajectory summary for trajectory      6
 Energy/gradient evaluations            0
 Hessian evaluations                    0

 Trajectory summary
   Time (fs)   Kinetic (au)   Potent (au)   Delta E (au)     Delta A (h-bar)
     0.000000     0.0237510    -0.0474948     0.0000000     0.0000000000000000
                             Max Error =      0.0000000     0.0000000000000000
 Trajectory      6 has not met product criteria!
 
 TRJ-TRJ-TRJ-TRJ-TRJ-TRJ-TRJ-TRJ-TRJ-TRJ-TRJ-TRJ-TRJ-TRJ-TRJ-TRJ-TRJ-TRJ
 
 TRJ-TRJ-TRJ-TRJ-TRJ-TRJ-TRJ-TRJ-TRJ-TRJ-TRJ-TRJ-TRJ-TRJ-TRJ-TRJ-TRJ-TRJ
          ******** Start new trajectory calculation ********
 Trajectory Number     7    Step Number     1
 Get start point for trajectory     7

 Start point information 
 Time (fs)     0.000000
 EKin =       0.0237510; EPot =      -0.0474948; ETot =      -0.0237438 A.U.
 Angular momentum (instantaneous)
   JX = -0.1526209037D-15  JY =  0.8980863029D-18  JZ = -0.1468611067D-13
 Jtot =  0.1468690371D-13 H-BAR;  J (Quantum Number) =  0.0000000000D+00
 Total energy  -2.374376D-02 A.U.
 Total angular momentum   1.468690D-14 h-bar
 Cartesian coordinates: (bohr)
 I=    1 X=   2.933167850344D+00 Y=   6.272133729472D-01 Z=  -1.494553129627D-04
 I=    2 X=   2.527872781627D+00 Y=   2.648332187519D+00 Z=   1.732711907104D-03
 I=    3 X=   4.916219944297D+00 Y=   6.715697179839D-02 Z=  -2.536179408288D-03
 I=    4 X=   1.266242200857D+00 Y=  -9.251776071848D-01 Z=   3.910063586629D-04
 I=    5 X=  -3.802460480323D+00 Y=   3.022736173077D-01 Z=  -2.855155939314D-04
 I=    6 X=  -2.117195211737D+00 Y=  -2.976729886775D-01 Z=   9.087913167937D-04
 MW cartesian velocity: (sqrt(amu)*bohr/sec)
 I=    1 X=   4.442320787550D+13 Y=   3.329559376797D+13 Z=  -2.779441304588D+13
 I=    2 X=   9.150792478349D+13 Y=   7.077491126618D+13 Z=   4.799775998158D+13
 I=    3 X=  -2.270633626500D+13 Y=   4.141981295718D+12 Z=   6.365597364499D+12
 I=    4 X=  -8.648161222276D+13 Y=  -3.598223284473D+13 Z=   9.692928455620D+12
 I=    5 X=   9.211794280570D+12 Y=  -2.802573271392D+13 Z=  -1.282760087794D+13
 I=    6 X=   8.573859200501D+13 Y=   6.518786406754D+13 Z=   5.403273539612D+13
 TRJ-TRJ-TRJ-TRJ-TRJ-TRJ-TRJ-TRJ-TRJ-TRJ-TRJ-TRJ-TRJ-TRJ-TRJ-TRJ-TRJ-TRJ
 
 
 TRJ-TRJ-TRJ-TRJ-TRJ-TRJ-TRJ-TRJ-TRJ-TRJ-TRJ-TRJ-TRJ-TRJ-TRJ-TRJ-TRJ-TRJ
 Trajectory Number     7    Step Number     2
 Start point not scaled!

 Summary information for step      2
 Time (fs)     0.000000
 EKin =       0.0237510; EPot =      -0.0474948; ETot =      -0.0237438 A.U.
 Angular momentum (instantaneous)
   JX = -0.1526209037D-15  JY =  0.8980863029D-18  JZ = -0.1468611067D-13
 Jtot =  0.1468690371D-13 H-BAR;  J (Quantum Number) =  0.0000000000D+00
 Total energy  -2.374376D-02 A.U.
 Total angular momentum   1.468690D-14 h-bar
 Cartesian coordinates: (bohr)
 I=    1 X=   2.933167850344D+00 Y=   6.272133729472D-01 Z=  -1.494553129627D-04
 I=    2 X=   2.527872781627D+00 Y=   2.648332187519D+00 Z=   1.732711907104D-03
 I=    3 X=   4.916219944297D+00 Y=   6.715697179839D-02 Z=  -2.536179408288D-03
 I=    4 X=   1.266242200857D+00 Y=  -9.251776071848D-01 Z=   3.910063586629D-04
 I=    5 X=  -3.802460480323D+00 Y=   3.022736173077D-01 Z=  -2.855155939314D-04
 I=    6 X=  -2.117195211737D+00 Y=  -2.976729886775D-01 Z=   9.087913167937D-04
 MW cartesian velocity: (sqrt(amu)*bohr/sec)
 I=    1 X=   4.442320787550D+13 Y=   3.329559376797D+13 Z=  -2.779441304588D+13
 I=    2 X=   9.150792478349D+13 Y=   7.077491126618D+13 Z=   4.799775998158D+13
 I=    3 X=  -2.270633626500D+13 Y=   4.141981295718D+12 Z=   6.365597364499D+12
 I=    4 X=  -8.648161222276D+13 Y=  -3.598223284473D+13 Z=   9.692928455620D+12
 I=    5 X=   9.211794280570D+12 Y=  -2.802573271392D+13 Z=  -1.282760087794D+13
 I=    6 X=   8.573859200501D+13 Y=   6.518786406754D+13 Z=   5.403273539612D+13


 Final analysis for traj   7
 Traj calculation does not meet the product criterion.


 Analysis of fragment    1

 Instantaneous rotational analysis:
 Q(CM): X= -0.944603268378D-16 Y=  0.200728194530D-16 Z= -0.138369619391D-19
 V(CM): X=  0.885565564105D-03 Y= -0.885565564105D-03 Z=  0.000000000000D+00
 Angular momentum in principle axes
   JX =  0.3059605616D-14  JY = -0.7954974602D-14  JZ = -0.1529802808D-15
 Jtot =  0.8524447807D-14  H-BAR;  J (Quantum Number) =  0.0000000000D+00
 Angular momentum in original axes
   JX = -0.9193100059D-16  JY =  0.3060881340D-14  JZ = -0.7955423592D-14
 Jtot =  0.8524447807D-14  H-BAR;  J (Quantum Number) =  0.0000000000D+00

 Etrn =  0.2728159391D-34 Erot =  0.4781147622D-34 Evib(kin) =  0.2375100000D-01 au
 Epot = -0.4749475573D-01 Etot = -0.2374375573D-01 au

 Trajectory summary for trajectory      7
 Energy/gradient evaluations            0
 Hessian evaluations                    0

 Trajectory summary
   Time (fs)   Kinetic (au)   Potent (au)   Delta E (au)     Delta A (h-bar)
     0.000000     0.0237510    -0.0474948     0.0000000     0.0000000000000000
                             Max Error =      0.0000000     0.0000000000000000
 Trajectory      7 has not met product criteria!
 
 TRJ-TRJ-TRJ-TRJ-TRJ-TRJ-TRJ-TRJ-TRJ-TRJ-TRJ-TRJ-TRJ-TRJ-TRJ-TRJ-TRJ-TRJ
 
 TRJ-TRJ-TRJ-TRJ-TRJ-TRJ-TRJ-TRJ-TRJ-TRJ-TRJ-TRJ-TRJ-TRJ-TRJ-TRJ-TRJ-TRJ
          ******** Start new trajectory calculation ********
 Trajectory Number     8    Step Number     1
 Get start point for trajectory     8

 Start point information 
 Time (fs)     0.000000
 EKin =       0.0237510; EPot =      -0.0474948; ETot =      -0.0237438 A.U.
 Angular momentum (instantaneous)
   JX = -0.1174708235D-14  JY =  0.2470107484D-14  JZ = -0.9791125003D-14
 Jtot =  0.1016599721D-13 H-BAR;  J (Quantum Number) =  0.0000000000D+00
 Total energy  -2.374376D-02 A.U.
 Total angular momentum   1.016600D-14 h-bar
 Cartesian coordinates: (bohr)
 I=    1 X=   2.933167850344D+00 Y=   6.272133729472D-01 Z=  -1.494553129627D-04
 I=    2 X=   2.527872781627D+00 Y=   2.648332187519D+00 Z=   1.732711907104D-03
 I=    3 X=   4.916219944297D+00 Y=   6.715697179839D-02 Z=  -2.536179408288D-03
 I=    4 X=   1.266242200857D+00 Y=  -9.251776071848D-01 Z=   3.910063586629D-04
 I=    5 X=  -3.802460480323D+00 Y=   3.022736173077D-01 Z=  -2.855155939314D-04
 I=    6 X=  -2.117195211737D+00 Y=  -2.976729886775D-01 Z=   9.087913167937D-04
 MW cartesian velocity: (sqrt(amu)*bohr/sec)
 I=    1 X=   6.663599926650D+13 Y=  -1.849336456558D+13 Z=   9.981414784006D+12
 I=    2 X=   6.544688968183D+13 Y=   4.053231048622D+12 Z=  -3.434667092118D+13
 I=    3 X=   6.614535828983D+13 Y=   2.475305443874D+13 Z=   4.266050823895D+13
 I=    4 X=  -6.108182621411D+13 Y=   2.452760205713D+13 Z=  -2.526567296191D+13
 I=    5 X=  -3.239806917313D+13 Y=  -4.522273520365D+13 Z=  -3.867604471414D+12
 I=    6 X=   1.087770368803D+13 Y=   1.174528583273D+14 Z=   7.330540220732D+13
 TRJ-TRJ-TRJ-TRJ-TRJ-TRJ-TRJ-TRJ-TRJ-TRJ-TRJ-TRJ-TRJ-TRJ-TRJ-TRJ-TRJ-TRJ
 
 
 TRJ-TRJ-TRJ-TRJ-TRJ-TRJ-TRJ-TRJ-TRJ-TRJ-TRJ-TRJ-TRJ-TRJ-TRJ-TRJ-TRJ-TRJ
 Trajectory Number     8    Step Number     2
 Start point not scaled!

 Summary information for step      2
 Time (fs)     0.000000
 EKin =       0.0237510; EPot =      -0.0474948; ETot =      -0.0237438 A.U.
 Angular momentum (instantaneous)
   JX = -0.1174708235D-14  JY =  0.2470107484D-14  JZ = -0.9791125003D-14
 Jtot =  0.1016599721D-13 H-BAR;  J (Quantum Number) =  0.0000000000D+00
 Total energy  -2.374376D-02 A.U.
 Total angular momentum   1.016600D-14 h-bar
 Cartesian coordinates: (bohr)
 I=    1 X=   2.933167850344D+00 Y=   6.272133729472D-01 Z=  -1.494553129627D-04
 I=    2 X=   2.527872781627D+00 Y=   2.648332187519D+00 Z=   1.732711907104D-03
 I=    3 X=   4.916219944297D+00 Y=   6.715697179839D-02 Z=  -2.536179408288D-03
 I=    4 X=   1.266242200857D+00 Y=  -9.251776071848D-01 Z=   3.910063586629D-04
 I=    5 X=  -3.802460480323D+00 Y=   3.022736173077D-01 Z=  -2.855155939314D-04
 I=    6 X=  -2.117195211737D+00 Y=  -2.976729886775D-01 Z=   9.087913167937D-04
 MW cartesian velocity: (sqrt(amu)*bohr/sec)
 I=    1 X=   6.663599926650D+13 Y=  -1.849336456558D+13 Z=   9.981414784006D+12
 I=    2 X=   6.544688968183D+13 Y=   4.053231048622D+12 Z=  -3.434667092118D+13
 I=    3 X=   6.614535828983D+13 Y=   2.475305443874D+13 Z=   4.266050823895D+13
 I=    4 X=  -6.108182621411D+13 Y=   2.452760205713D+13 Z=  -2.526567296191D+13
 I=    5 X=  -3.239806917313D+13 Y=  -4.522273520365D+13 Z=  -3.867604471414D+12
 I=    6 X=   1.087770368803D+13 Y=   1.174528583273D+14 Z=   7.330540220732D+13


 Final analysis for traj   8
 Traj calculation does not meet the product criterion.


 Analysis of fragment    1

 Instantaneous rotational analysis:
 Q(CM): X= -0.944603268378D-16 Y=  0.200728194530D-16 Z= -0.138369619391D-19
 V(CM): X=  0.848666998934D-03 Y= -0.885565564105D-03 Z= -0.590377042736D-03
 Angular momentum in principle axes
   JX =  0.1223842246D-14  JY = -0.1713379145D-13  JZ = -0.1835763370D-14
 Jtot =  0.1727526053D-13  H-BAR;  J (Quantum Number) =  0.0000000000D+00
 Angular momentum in original axes
   JX = -0.1810680100D-14  JY =  0.1257603414D-14  JZ = -0.1713401581D-13
 Jtot =  0.1727526053D-13  H-BAR;  J (Quantum Number) =  0.0000000000D+00

 Etrn =  0.1283839714D-34 Erot =  0.2259980619D-33 Evib(kin) =  0.2375100000D-01 au
 Epot = -0.4749475573D-01 Etot = -0.2374375573D-01 au

 Trajectory summary for trajectory      8
 Energy/gradient evaluations            0
 Hessian evaluations                    0

 Trajectory summary
   Time (fs)   Kinetic (au)   Potent (au)   Delta E (au)     Delta A (h-bar)
     0.000000     0.0237510    -0.0474948     0.0000000     0.0000000000000000
                             Max Error =      0.0000000     0.0000000000000000
 Trajectory      8 has not met product criteria!
 
 TRJ-TRJ-TRJ-TRJ-TRJ-TRJ-TRJ-TRJ-TRJ-TRJ-TRJ-TRJ-TRJ-TRJ-TRJ-TRJ-TRJ-TRJ
 
 TRJ-TRJ-TRJ-TRJ-TRJ-TRJ-TRJ-TRJ-TRJ-TRJ-TRJ-TRJ-TRJ-TRJ-TRJ-TRJ-TRJ-TRJ
          ******** Start new trajectory calculation ********
 Trajectory Number     9    Step Number     1
 Get start point for trajectory     9

 Start point information 
 Time (fs)     0.000000
 EKin =       0.0237510; EPot =      -0.0474948; ETot =      -0.0237438 A.U.
 Angular momentum (instantaneous)
   JX =  0.4147153724D-16  JY =  0.1509388832D-15  JZ = -0.8566916924D-14
 Jtot =  0.8568346866D-14 H-BAR;  J (Quantum Number) =  0.0000000000D+00
 Total energy  -2.374376D-02 A.U.
 Total angular momentum   8.568347D-15 h-bar
 Cartesian coordinates: (bohr)
 I=    1 X=   2.933167850344D+00 Y=   6.272133729472D-01 Z=  -1.494553129627D-04
 I=    2 X=   2.527872781627D+00 Y=   2.648332187519D+00 Z=   1.732711907104D-03
 I=    3 X=   4.916219944297D+00 Y=   6.715697179839D-02 Z=  -2.536179408288D-03
 I=    4 X=   1.266242200857D+00 Y=  -9.251776071848D-01 Z=   3.910063586629D-04
 I=    5 X=  -3.802460480323D+00 Y=   3.022736173077D-01 Z=  -2.855155939314D-04
 I=    6 X=  -2.117195211737D+00 Y=  -2.976729886775D-01 Z=   9.087913167937D-04
 MW cartesian velocity: (sqrt(amu)*bohr/sec)
 I=    1 X=   4.038140274097D+12 Y=  -2.446610660650D+13 Z=  -8.591137643144D+12
 I=    2 X=  -8.993853013652D+12 Y=   5.427401236706D+13 Z=   8.570372116611D+12
 I=    3 X=   8.416566944509D+13 Y=   5.043900032469D+13 Z=   1.412603206927D+13
 I=    4 X=  -9.016640571526D+13 Y=  -2.040371367834D+12 Z=   3.288694182367D+11
 I=    5 X=   4.330268561877D+13 Y=  -2.874739908791D+13 Z=  -8.620938137291D+11
 I=    6 X=   9.759012633766D+13 Y=   1.023629662949D+14 Z=   9.072673307095D+12
 TRJ-TRJ-TRJ-TRJ-TRJ-TRJ-TRJ-TRJ-TRJ-TRJ-TRJ-TRJ-TRJ-TRJ-TRJ-TRJ-TRJ-TRJ
 
 
 TRJ-TRJ-TRJ-TRJ-TRJ-TRJ-TRJ-TRJ-TRJ-TRJ-TRJ-TRJ-TRJ-TRJ-TRJ-TRJ-TRJ-TRJ
 Trajectory Number     9    Step Number     2
 Start point not scaled!

 Summary information for step      2
 Time (fs)     0.000000
 EKin =       0.0237510; EPot =      -0.0474948; ETot =      -0.0237438 A.U.
 Angular momentum (instantaneous)
   JX =  0.4147153724D-16  JY =  0.1509388832D-15  JZ = -0.8566916924D-14
 Jtot =  0.8568346866D-14 H-BAR;  J (Quantum Number) =  0.0000000000D+00
 Total energy  -2.374376D-02 A.U.
 Total angular momentum   8.568347D-15 h-bar
 Cartesian coordinates: (bohr)
 I=    1 X=   2.933167850344D+00 Y=   6.272133729472D-01 Z=  -1.494553129627D-04
 I=    2 X=   2.527872781627D+00 Y=   2.648332187519D+00 Z=   1.732711907104D-03
 I=    3 X=   4.916219944297D+00 Y=   6.715697179839D-02 Z=  -2.536179408288D-03
 I=    4 X=   1.266242200857D+00 Y=  -9.251776071848D-01 Z=   3.910063586629D-04
 I=    5 X=  -3.802460480323D+00 Y=   3.022736173077D-01 Z=  -2.855155939314D-04
 I=    6 X=  -2.117195211737D+00 Y=  -2.976729886775D-01 Z=   9.087913167937D-04
 MW cartesian velocity: (sqrt(amu)*bohr/sec)
 I=    1 X=   4.038140274097D+12 Y=  -2.446610660650D+13 Z=  -8.591137643144D+12
 I=    2 X=  -8.993853013652D+12 Y=   5.427401236706D+13 Z=   8.570372116611D+12
 I=    3 X=   8.416566944509D+13 Y=   5.043900032469D+13 Z=   1.412603206927D+13
 I=    4 X=  -9.016640571526D+13 Y=  -2.040371367834D+12 Z=   3.288694182367D+11
 I=    5 X=   4.330268561877D+13 Y=  -2.874739908791D+13 Z=  -8.620938137291D+11
 I=    6 X=   9.759012633766D+13 Y=   1.023629662949D+14 Z=   9.072673307095D+12


 Final analysis for traj   9
 Traj calculation does not meet the product criterion.


 Analysis of fragment    1

 Instantaneous rotational analysis:
 Q(CM): X= -0.944603268378D-16 Y=  0.200728194530D-16 Z= -0.138369619391D-19
 V(CM): X=  0.885565564105D-03 Y=  0.000000000000D+00 Z= -0.737971303421D-04
 Angular momentum in principle axes
   JX =  0.7649014040D-15  JY = -0.1101458022D-13  JZ = -0.1912253510D-16
 Jtot =  0.1104112391D-13  H-BAR;  J (Quantum Number) =  0.0000000000D+00
 Angular momentum in original axes
   JX = -0.3661719333D-17  JY =  0.7635224440D-15  JZ = -0.1101469188D-13
 Jtot =  0.1104112391D-13  H-BAR;  J (Quantum Number) =  0.0000000000D+00

 Etrn =  0.1193820484D-33 Erot =  0.7917091174D-34 Evib(kin) =  0.2375100000D-01 au
 Epot = -0.4749475573D-01 Etot = -0.2374375573D-01 au

 Trajectory summary for trajectory      9
 Energy/gradient evaluations            0
 Hessian evaluations                    0

 Trajectory summary
   Time (fs)   Kinetic (au)   Potent (au)   Delta E (au)     Delta A (h-bar)
     0.000000     0.0237510    -0.0474948     0.0000000     0.0000000000000000
                             Max Error =      0.0000000     0.0000000000000000
 Trajectory      9 has not met product criteria!
 
 TRJ-TRJ-TRJ-TRJ-TRJ-TRJ-TRJ-TRJ-TRJ-TRJ-TRJ-TRJ-TRJ-TRJ-TRJ-TRJ-TRJ-TRJ
 
 TRJ-TRJ-TRJ-TRJ-TRJ-TRJ-TRJ-TRJ-TRJ-TRJ-TRJ-TRJ-TRJ-TRJ-TRJ-TRJ-TRJ-TRJ
          ******** Start new trajectory calculation ********
 Trajectory Number    10    Step Number     1
 Get start point for trajectory    10

 Start point information 
 Time (fs)     0.000000
 EKin =       0.0237510; EPot =      -0.0474948; ETot =      -0.0237438 A.U.
 Angular momentum (instantaneous)
   JX = -0.6430275121D-15  JY =  0.6132943411D-14  JZ = -0.1836673118D-14
 Jtot =  0.6434271319D-14 H-BAR;  J (Quantum Number) =  0.0000000000D+00
 Total energy  -2.374376D-02 A.U.
 Total angular momentum   6.434271D-15 h-bar
 Cartesian coordinates: (bohr)
 I=    1 X=   2.933167850344D+00 Y=   6.272133729472D-01 Z=  -1.494553129627D-04
 I=    2 X=   2.527872781627D+00 Y=   2.648332187519D+00 Z=   1.732711907104D-03
 I=    3 X=   4.916219944297D+00 Y=   6.715697179839D-02 Z=  -2.536179408288D-03
 I=    4 X=   1.266242200857D+00 Y=  -9.251776071848D-01 Z=   3.910063586629D-04
 I=    5 X=  -3.802460480323D+00 Y=   3.022736173077D-01 Z=  -2.855155939314D-04
 I=    6 X=  -2.117195211737D+00 Y=  -2.976729886775D-01 Z=   9.087913167937D-04
 MW cartesian velocity: (sqrt(amu)*bohr/sec)
 I=    1 X=   3.432123948173D+13 Y=  -4.094739863610D+13 Z=  -1.798204712109D+13
 I=    2 X=   3.737872696095D+12 Y=   6.233291350030D+13 Z=  -1.414423101924D+13
 I=    3 X=  -1.838319052383D+13 Y=   2.483219546111D+13 Z=   1.027076055659D+14
 I=    4 X=  -7.326042928525D+13 Y=   3.478762749954D+13 Z=  -2.632031408115D+13
 I=    5 X=   2.169098739041D+13 Y=  -1.926084506971D+13 Z=  -1.704998788660D+12
 I=    6 X=   1.016582641657D+14 Y=  -7.726617157362D+12 Z=   8.513343145679D+13
 TRJ-TRJ-TRJ-TRJ-TRJ-TRJ-TRJ-TRJ-TRJ-TRJ-TRJ-TRJ-TRJ-TRJ-TRJ-TRJ-TRJ-TRJ
 
 
 TRJ-TRJ-TRJ-TRJ-TRJ-TRJ-TRJ-TRJ-TRJ-TRJ-TRJ-TRJ-TRJ-TRJ-TRJ-TRJ-TRJ-TRJ
 Trajectory Number    10    Step Number     2
 Start point not scaled!

 Summary information for step      2
 Time (fs)     0.000000
 EKin =       0.0237510; EPot =      -0.0474948; ETot =      -0.0237438 A.U.
 Angular momentum (instantaneous)
   JX = -0.6430275121D-15  JY =  0.6132943411D-14  JZ = -0.1836673118D-14
 Jtot =  0.6434271319D-14 H-BAR;  J (Quantum Number) =  0.0000000000D+00
 Total energy  -2.374376D-02 A.U.
 Total angular momentum   6.434271D-15 h-bar
 Cartesian coordinates: (bohr)
 I=    1 X=   2.933167850344D+00 Y=   6.272133729472D-01 Z=  -1.494553129627D-04
 I=    2 X=   2.527872781627D+00 Y=   2.648332187519D+00 Z=   1.732711907104D-03
 I=    3 X=   4.916219944297D+00 Y=   6.715697179839D-02 Z=  -2.536179408288D-03
 I=    4 X=   1.266242200857D+00 Y=  -9.251776071848D-01 Z=   3.910063586629D-04
 I=    5 X=  -3.802460480323D+00 Y=   3.022736173077D-01 Z=  -2.855155939314D-04
 I=    6 X=  -2.117195211737D+00 Y=  -2.976729886775D-01 Z=   9.087913167937D-04
 MW cartesian velocity: (sqrt(amu)*bohr/sec)
 I=    1 X=   3.432123948173D+13 Y=  -4.094739863610D+13 Z=  -1.798204712109D+13
 I=    2 X=   3.737872696095D+12 Y=   6.233291350030D+13 Z=  -1.414423101924D+13
 I=    3 X=  -1.838319052383D+13 Y=   2.483219546111D+13 Z=   1.027076055659D+14
 I=    4 X=  -7.326042928525D+13 Y=   3.478762749954D+13 Z=  -2.632031408115D+13
 I=    5 X=   2.169098739041D+13 Y=  -1.926084506971D+13 Z=  -1.704998788660D+12
 I=    6 X=   1.016582641657D+14 Y=  -7.726617157362D+12 Z=   8.513343145679D+13


 Final analysis for traj  10
 Traj calculation does not meet the product criterion.


 Analysis of fragment    1

 Instantaneous rotational analysis:
 Q(CM): X= -0.944603268378D-16 Y=  0.200728194530D-16 Z= -0.138369619391D-19
 V(CM): X=  0.118075408547D-02 Y= -0.996261259618D-03 Z= -0.118075408547D-02
 Angular momentum in principle axes
   JX =  0.1223842246D-14  JY = -0.3977487301D-14  JZ = -0.9178816848D-15
 Jtot =  0.4261537500D-14  H-BAR;  J (Quantum Number) =  0.0000000000D+00
 Angular momentum in original axes
   JX = -0.8932747520D-15  JY =  0.1241271813D-14  JZ = -0.3977688570D-14
 Jtot =  0.4261537500D-14  H-BAR;  J (Quantum Number) =  0.0000000000D+00

 Etrn =  0.3934266622D-34 Erot =  0.1990309174D-34 Evib(kin) =  0.2375100000D-01 au
 Epot = -0.4749475573D-01 Etot = -0.2374375573D-01 au

 Trajectory summary for trajectory     10
 Energy/gradient evaluations            0
 Hessian evaluations                    0

 Trajectory summary
   Time (fs)   Kinetic (au)   Potent (au)   Delta E (au)     Delta A (h-bar)
     0.000000     0.0237510    -0.0474948     0.0000000     0.0000000000000000
                             Max Error =      0.0000000     0.0000000000000000
 Trajectory     10 has not met product criteria!


 -----------------------
 Summary of trajectories
 -----------------------

 Trajectory      1 did not finish in      1 cycles.
   Total time in trajectory      0.000 femtosec.
 Trajectory      2 did not finish in      1 cycles.
   Total time in trajectory      0.000 femtosec.
 Trajectory      3 did not finish in      1 cycles.
   Total time in trajectory      0.000 femtosec.
 Trajectory      4 did not finish in      1 cycles.
   Total time in trajectory      0.000 femtosec.
 Trajectory      5 did not finish in      1 cycles.
   Total time in trajectory      0.000 femtosec.
 Trajectory      6 did not finish in      1 cycles.
   Total time in trajectory      0.000 femtosec.
 Trajectory      7 did not finish in      1 cycles.
   Total time in trajectory      0.000 femtosec.
 Trajectory      8 did not finish in      1 cycles.
   Total time in trajectory      0.000 femtosec.
 Trajectory      9 did not finish in      1 cycles.
   Total time in trajectory      0.000 femtosec.
 Trajectory     10 did not finish in      1 cycles.
   Total time in trajectory      0.000 femtosec.


 TRJ-TRJ-TRJ-TRJ-TRJ-TRJ-TRJ-TRJ-TRJ-TRJ-TRJ-TRJ-TRJ-TRJ-TRJ-TRJ-TRJ-TRJ
                          Input orientation:                          
 ---------------------------------------------------------------------
 Center     Atomic      Atomic             Coordinates (Angstroms)
 Number     Number       Type             X           Y           Z
 ---------------------------------------------------------------------
      1          6           0        1.552166    0.331907   -0.000079
      2          1           0        1.337693    1.401437    0.000917
      3          1           0        2.601552    0.035538   -0.001342
      4          8           0        0.670067   -0.489583    0.000207
      5          8           0       -2.012175    0.159956   -0.000151
      6          1           0       -1.120371   -0.157522    0.000481
 ---------------------------------------------------------------------
                    Distance matrix (angstroms):
                    1          2          3          4          5
     1  C    0.000000
     2  H    1.090823   0.000000
     3  H    1.090434   1.860920   0.000000
     4  O    1.205381   2.005413   2.001597   0.000000
     5  O    3.568486   3.572519   4.615404   2.759769   0.000000
     6  H    2.716983   2.910744   3.726927   1.820970   0.946629
                    6
     6  H    0.000000
 Symmetry turned off by external request.
 Stoichiometry    CH3O2(2)
 Framework group  C1[X(CH3O2)]
 Deg. of freedom    12
 Full point group                 C1      NOp   1
 Rotational constants (GHZ):          67.1164115           4.5618613           4.2715284
 1\1\GINC-N1\BOMD\UAM1\ZDO\C1H3O2(2)\OMABAZA\23-May-2024\0\\# AM1 BOMD(
 NKE=23751,NTraj=10,GradOnly,Maxpoints=1) SCF=XQC\\BOMD starting from o
 ptimized structure of H-bonded complex AM1 level of theory 10 trajecto
 ries of 1 point each Random initial velocities of atoms for T=298K (=7
 078 microHartree nuclear kinetic energy for 6-atom system) Default Ste
 pSize\\0,2\C,0,-1.496366,-0.306552,-0.00008\H,0,-1.281893,-1.376082,0.
 000916\H,0,-2.545752,-0.010183,-0.001343\O,0,-0.614267,0.514938,0.0002
 06\O,0,2.067975,-0.134601,-0.000152\H,0,1.176171,0.182877,0.00048\\Ver
 sion=ES64L-G16RevA.03\State=2-A\HF=-0.0474948\S2=0.751295\S2-1=0.\S2A=
 0.75\RMSD=4.217e-09\RMSF=1.694e-02\Dipole=-1.3306811,-0.4419386,0.0001
 745\PG=C01 [X(C1H3O2)]\\@


 A SOLDIER'S LIFE IS A LIFE OF HONOR, BUT A DOG WOULD NOT LEAD IT.
 -- PRINCE RUPERT, FOUNDER OF THE HUDSON'S BAY COMPANY
 Job cpu time:       0 days  0 hours  0 minutes  1.1 seconds.
 Elapsed time:       0 days  0 hours  0 minutes  1.0 seconds.
 File lengths (MBytes):  RWF=      6 Int=      0 D2E=      0 Chk=      2 Scr=      1
 Normal termination of Gaussian 16 at Thu May 23 13:53:01 2024.
